------------------------------------------------------------
          Invoking FHI-aims ...

          When using FHI-aims, please cite the following reference:

            Volker Blum, Ralf Gehrke, Felix Hanke, Paula Havu,
            Ville Havu, Xinguo Ren, Karsten Reuter, and Matthias Scheffler,
            'Ab Initio Molecular Simulations with Numeric Atom-Centered Orbitals',
            Computer Physics Communications 180, 2175-2196 (2009)

          In addition, many other developments in FHI-aims are likely important for
          your particular application. A partial list of references is given at the end of
          this file. Thank you for giving credit to the authors of these developments.

          For any questions about FHI-aims, please visit our slack channel at

            https://fhi-aims.slack.com

          and our main development and support site at

            https://aims-git.rz-berlin.mpg.de .

          The latter site, in particular, has a wiki to collect information, as well
          as an issue tracker to log discussions, suggest improvements, and report issues
          or bugs. https://aims-git.rz-berlin.mpg.de is also the main development site
          of the project and all new and updated code versions can be obtained there.
          Please send an email to aims-coordinators@fhi-berlin.mpg.de and we will add
          you to these sites. They are for you and everyone is welcome there.

------------------------------------------------------------



  Date     :  20230919, Time     :  031700.423
  Time zero on CPU 1             :   0.357387100000000E+01  s.
  Internal wall clock time zero  :           464325420.423  s.

  FHI-aims created a unique identifier for this run for later identification
  aims_uuid : 2364ABBE-28CF-490D-AF3F-504A4339B03D

  Build configuration of the current instance of FHI-aims
  -------------------------------------------------------
  FHI-aims version      : 221103.1
  Commit number         : GITDIR-NOTFOUND
  CMake host system     : Linux-4.18.0-193.28.1.el8_2.x86_64
  CMake version         : 3.26.3
  Fortran compiler      : /jet/packages/intel/oneapi/mpi/2021.3.0/bin/mpiifort (Intel) version 2021.3.0.20210609
  Fortran compiler flags: -O3 -ip -fp-model precise
  C compiler            : /jet/packages/intel/oneapi/compiler/2021.3.0/linux/bin/intel64/icc (Intel) version 2021.3.0.20210609
  C compiler flags      : -O3 -ip -fp-model precise
  HIP compiler          :
  HIP compiler flags    :
  HIP GPU arch          :
  Using MPI
  Using ScaLAPACK
  Using LibXC
  Using i-PI
  Using RLSY
  Linking against: /opt/intel/mkl/lib/intel64/libmkl_intel_lp64.so
                   /opt/intel/mkl/lib/intel64/libmkl_sequential.so
                   /opt/intel/mkl/lib/intel64/libmkl_core.so
                   /opt/intel/mkl/lib/intel64/libmkl_blacs_intelmpi_lp64.so
                   /opt/intel/mkl/lib/intel64/libmkl_scalapack_lp64.so

  Using      128 parallel tasks.
  Task        0 on host r445.ib.bridges2.psc.edu reporting.
  Task        1 on host r445.ib.bridges2.psc.edu reporting.
  Task        2 on host r445.ib.bridges2.psc.edu reporting.
  Task        3 on host r445.ib.bridges2.psc.edu reporting.
  Task        4 on host r445.ib.bridges2.psc.edu reporting.
  Task        5 on host r445.ib.bridges2.psc.edu reporting.
  Task        6 on host r445.ib.bridges2.psc.edu reporting.
  Task        7 on host r445.ib.bridges2.psc.edu reporting.
  Task        8 on host r445.ib.bridges2.psc.edu reporting.
  Task        9 on host r445.ib.bridges2.psc.edu reporting.
  Task       10 on host r445.ib.bridges2.psc.edu reporting.
  Task       11 on host r445.ib.bridges2.psc.edu reporting.
  Task       12 on host r445.ib.bridges2.psc.edu reporting.
  Task       13 on host r445.ib.bridges2.psc.edu reporting.
  Task       14 on host r445.ib.bridges2.psc.edu reporting.
  Task       15 on host r445.ib.bridges2.psc.edu reporting.
  Task       16 on host r445.ib.bridges2.psc.edu reporting.
  Task       17 on host r445.ib.bridges2.psc.edu reporting.
  Task       18 on host r445.ib.bridges2.psc.edu reporting.
  Task       19 on host r445.ib.bridges2.psc.edu reporting.
  Task       20 on host r445.ib.bridges2.psc.edu reporting.
  Task       21 on host r445.ib.bridges2.psc.edu reporting.
  Task       22 on host r445.ib.bridges2.psc.edu reporting.
  Task       23 on host r445.ib.bridges2.psc.edu reporting.
  Task       24 on host r445.ib.bridges2.psc.edu reporting.
  Task       25 on host r445.ib.bridges2.psc.edu reporting.
  Task       26 on host r445.ib.bridges2.psc.edu reporting.
  Task       27 on host r445.ib.bridges2.psc.edu reporting.
  Task       28 on host r445.ib.bridges2.psc.edu reporting.
  Task       29 on host r445.ib.bridges2.psc.edu reporting.
  Task       30 on host r445.ib.bridges2.psc.edu reporting.
  Task       31 on host r445.ib.bridges2.psc.edu reporting.
  Task       32 on host r445.ib.bridges2.psc.edu reporting.
  Task       33 on host r445.ib.bridges2.psc.edu reporting.
  Task       34 on host r445.ib.bridges2.psc.edu reporting.
  Task       35 on host r445.ib.bridges2.psc.edu reporting.
  Task       36 on host r445.ib.bridges2.psc.edu reporting.
  Task       37 on host r445.ib.bridges2.psc.edu reporting.
  Task       38 on host r445.ib.bridges2.psc.edu reporting.
  Task       39 on host r445.ib.bridges2.psc.edu reporting.
  Task       40 on host r445.ib.bridges2.psc.edu reporting.
  Task       41 on host r445.ib.bridges2.psc.edu reporting.
  Task       42 on host r445.ib.bridges2.psc.edu reporting.
  Task       43 on host r445.ib.bridges2.psc.edu reporting.
  Task       44 on host r445.ib.bridges2.psc.edu reporting.
  Task       45 on host r445.ib.bridges2.psc.edu reporting.
  Task       46 on host r445.ib.bridges2.psc.edu reporting.
  Task       47 on host r445.ib.bridges2.psc.edu reporting.
  Task       48 on host r445.ib.bridges2.psc.edu reporting.
  Task       49 on host r445.ib.bridges2.psc.edu reporting.
  Task       50 on host r445.ib.bridges2.psc.edu reporting.
  Task       51 on host r445.ib.bridges2.psc.edu reporting.
  Task       52 on host r445.ib.bridges2.psc.edu reporting.
  Task       53 on host r445.ib.bridges2.psc.edu reporting.
  Task       54 on host r445.ib.bridges2.psc.edu reporting.
  Task       55 on host r445.ib.bridges2.psc.edu reporting.
  Task       56 on host r445.ib.bridges2.psc.edu reporting.
  Task       57 on host r445.ib.bridges2.psc.edu reporting.
  Task       58 on host r445.ib.bridges2.psc.edu reporting.
  Task       59 on host r445.ib.bridges2.psc.edu reporting.
  Task       60 on host r445.ib.bridges2.psc.edu reporting.
  Task       61 on host r445.ib.bridges2.psc.edu reporting.
  Task       62 on host r445.ib.bridges2.psc.edu reporting.
  Task       63 on host r445.ib.bridges2.psc.edu reporting.
  Task       64 on host r445.ib.bridges2.psc.edu reporting.
  Task       65 on host r445.ib.bridges2.psc.edu reporting.
  Task       66 on host r445.ib.bridges2.psc.edu reporting.
  Task       67 on host r445.ib.bridges2.psc.edu reporting.
  Task       68 on host r445.ib.bridges2.psc.edu reporting.
  Task       69 on host r445.ib.bridges2.psc.edu reporting.
  Task       70 on host r445.ib.bridges2.psc.edu reporting.
  Task       71 on host r445.ib.bridges2.psc.edu reporting.
  Task       72 on host r445.ib.bridges2.psc.edu reporting.
  Task       73 on host r445.ib.bridges2.psc.edu reporting.
  Task       74 on host r445.ib.bridges2.psc.edu reporting.
  Task       75 on host r445.ib.bridges2.psc.edu reporting.
  Task       76 on host r445.ib.bridges2.psc.edu reporting.
  Task       77 on host r445.ib.bridges2.psc.edu reporting.
  Task       78 on host r445.ib.bridges2.psc.edu reporting.
  Task       79 on host r445.ib.bridges2.psc.edu reporting.
  Task       80 on host r445.ib.bridges2.psc.edu reporting.
  Task       81 on host r445.ib.bridges2.psc.edu reporting.
  Task       82 on host r445.ib.bridges2.psc.edu reporting.
  Task       83 on host r445.ib.bridges2.psc.edu reporting.
  Task       84 on host r445.ib.bridges2.psc.edu reporting.
  Task       85 on host r445.ib.bridges2.psc.edu reporting.
  Task       86 on host r445.ib.bridges2.psc.edu reporting.
  Task       87 on host r445.ib.bridges2.psc.edu reporting.
  Task       88 on host r445.ib.bridges2.psc.edu reporting.
  Task       89 on host r445.ib.bridges2.psc.edu reporting.
  Task       90 on host r445.ib.bridges2.psc.edu reporting.
  Task       91 on host r445.ib.bridges2.psc.edu reporting.
  Task       92 on host r445.ib.bridges2.psc.edu reporting.
  Task       93 on host r445.ib.bridges2.psc.edu reporting.
  Task       94 on host r445.ib.bridges2.psc.edu reporting.
  Task       95 on host r445.ib.bridges2.psc.edu reporting.
  Task       96 on host r445.ib.bridges2.psc.edu reporting.
  Task       97 on host r445.ib.bridges2.psc.edu reporting.
  Task       98 on host r445.ib.bridges2.psc.edu reporting.
  Task       99 on host r445.ib.bridges2.psc.edu reporting.
  Task      100 on host r445.ib.bridges2.psc.edu reporting.
  Task      101 on host r445.ib.bridges2.psc.edu reporting.
  Task      102 on host r445.ib.bridges2.psc.edu reporting.
  Task      103 on host r445.ib.bridges2.psc.edu reporting.
  Task      104 on host r445.ib.bridges2.psc.edu reporting.
  Task      105 on host r445.ib.bridges2.psc.edu reporting.
  Task      106 on host r445.ib.bridges2.psc.edu reporting.
  Task      107 on host r445.ib.bridges2.psc.edu reporting.
  Task      108 on host r445.ib.bridges2.psc.edu reporting.
  Task      109 on host r445.ib.bridges2.psc.edu reporting.
  Task      110 on host r445.ib.bridges2.psc.edu reporting.
  Task      111 on host r445.ib.bridges2.psc.edu reporting.
  Task      112 on host r445.ib.bridges2.psc.edu reporting.
  Task      113 on host r445.ib.bridges2.psc.edu reporting.
  Task      114 on host r445.ib.bridges2.psc.edu reporting.
  Task      115 on host r445.ib.bridges2.psc.edu reporting.
  Task      116 on host r445.ib.bridges2.psc.edu reporting.
  Task      117 on host r445.ib.bridges2.psc.edu reporting.
  Task      118 on host r445.ib.bridges2.psc.edu reporting.
  Task      119 on host r445.ib.bridges2.psc.edu reporting.
  Task      120 on host r445.ib.bridges2.psc.edu reporting.
  Task      121 on host r445.ib.bridges2.psc.edu reporting.
  Task      122 on host r445.ib.bridges2.psc.edu reporting.
  Task      123 on host r445.ib.bridges2.psc.edu reporting.
  Task      124 on host r445.ib.bridges2.psc.edu reporting.
  Task      125 on host r445.ib.bridges2.psc.edu reporting.
  Task      126 on host r445.ib.bridges2.psc.edu reporting.
  Task      127 on host r445.ib.bridges2.psc.edu reporting.

  Performing system and environment tests:
  | Environment variable OMP_NUM_THREADS correctly set to 1.
  | Checking for ScaLAPACK...
  | Testing pdtran()...
  | All pdtran() tests passed.

  Obtaining array dimensions for all initial allocations:
  
  -----------------------------------------------------------------------
  Parsing control.in (first pass over file, find array dimensions only).
  The contents of control.in will be repeated verbatim below
  unless switched off by setting 'verbatim_writeout .false.' .
  in the first line of control.in .
  -----------------------------------------------------------------------
  
  #########################################################################################
  #
  #   input file control.in light for full relaxation
  #
  #########################################################################################
  #  Physical model
    xc                 pbe
    spin               none
    relativistic       none
    charge             0.
  
  #  SCF convergence
    occupation_type    gaussian 0.01
    mixer              pulay
      n_max_pulay        8
      charge_mix_param   0.2
    sc_accuracy_rho    1E-4
    sc_accuracy_eev    1E-2
    sc_accuracy_etot   1E-6
    sc_accuracy_forces 1E-4 #uncomment for relaxation
    sc_iter_limit      10000
    check_cpu_consistency .true.
  
  #  Eigenvalue solution
    KS_method          parallel
      empty_states       6
      basis_threshold    1.e-5
  
  #  For periodic boundary conditions
      k_grid 3 3 3
  #  Relaxation
  #    relax_geometry trm 1.e-2
  #    relax_unit_cell full
  #    hessian_to_restart_geometry .false
      # relax_unit_cell fixed_angles #uncomment for unit cell relaxation with fixed angles
      # restart_relaxations .true.
  #    harmonic_length_scale 0.01 #uncomment in case of relaxation errors
  #    energy_tolerance 5.e-4  #uncomment in case of relaxation errors
  # dispersion corrections
   # vdw_correction_hirshfeld
    many_body_dispersion
  
  ################################################################################
  #
  #  FHI-aims code project
  # Volker Blum, Fritz Haber Institute Berlin, 2009
  #
  #  Suggested "tight" defaults for H atom (to be pasted into control.in file)
  #
  ################################################################################
    species        H
  #     global species definitions
      nucleus             1
      mass                1.00794
  #
      l_hartree           6
  #
      cut_pot             4.0  2.0  1.0
      basis_dep_cutoff    1e-4
  #
      radial_base         24 7.0
      radial_multiplier   2
      angular_grids       specified
        division   0.1930   50
        division   0.3175  110
        division   0.4293  194
        division   0.5066  302
        division   0.5626  434
  #      division   0.5922  590
  #      division   0.6227  974
  #      division   0.6868 1202
  #      outer_grid  770
        outer_grid  434
  ################################################################################
  #
  #  Definition of "minimal" basis
  #
  ################################################################################
  #     valence basis states
      valence      1  s   1.
  #     ion occupancy
      ion_occ      1  s   0.5
  ################################################################################
  #
  #  Suggested additional basis functions. For production calculations,
  #  uncomment them one after another (the most important basis functions are
  #  listed first).
  #
  #  Basis constructed for dimers: 0.5 A, 0.7 A, 1.0 A, 1.5 A, 2.5 A
  #
  ################################################################################
  #  "First tier" - improvements: -1014.90 meV to -62.69 meV
       hydro 2 s 2.1
       hydro 2 p 3.5
  #  "Second tier" - improvements: -12.89 meV to -1.83 meV
       hydro 1 s 0.85
       hydro 2 p 3.7
       hydro 2 s 1.2
       hydro 3 d 7
  #  "Third tier" - improvements: -0.25 meV to -0.12 meV
  #     hydro 4 f 11.2
  #     hydro 3 p 4.8
  #     hydro 4 d 9
  #     hydro 3 s 3.2
  ################################################################################
  #
  # For methods that use the localized form of the "resolution of identity" for
  # the two-electron Coulomb operator (RI_method LVL), particularly Hartree-Fock and
  # hybrid density functional calculations, the highest accuracy can be obtained by
  # uncommenting the line beginning with "for_aux"  below, thus adding an extra g radial
  # function to the construction of the product basis set for the expansion.
  # See Ref. New J. Phys. 17, 093020 (2015) for more information, particularly Figs. 1 and 6.
  #
  ################################################################################
  #
  # for_aux hydro 5 g 6.0
  ################################################################################
  #
  #  FHI-aims code project
  # Volker Blum, Fritz Haber Institute Berlin, 2009
  #
  #  Suggested "tight" defaults for C atom (to be pasted into control.in file)
  #
  ################################################################################
    species        C
  #     global species definitions
      nucleus             6
      mass                12.0107
  #
      l_hartree           6
  #
      cut_pot             4.0  2.0  1.0
      basis_dep_cutoff    1e-4
  #
      radial_base         34 7.0
      radial_multiplier   2
      angular_grids specified
        division   0.2187   50
        division   0.4416  110
        division   0.6335  194
        division   0.7727  302
        division   0.8772  434
  #      division   0.9334  590
  #      division   0.9924  770
  #      division   1.0230  974
  #      division   1.5020 1202
  #     outer_grid  974
        outer_grid  434
  ################################################################################
  #
  #  Definition of "minimal" basis
  #
  ################################################################################
  #     valence basis states
      valence      2  s   2.
      valence      2  p   2.
  #     ion occupancy
      ion_occ      2  s   1.
      ion_occ      2  p   1.
  ################################################################################
  #
  #  Suggested additional basis functions. For production calculations,
  #  uncomment them one after another (the most important basis functions are
  #  listed first).
  #
  #  Constructed for dimers: 1.0 A, 1.25 A, 1.5 A, 2.0 A, 3.0 A
  #
  ################################################################################
  #  "First tier" - improvements: -1214.57 meV to -155.61 meV
       hydro 2 p 1.7
       hydro 3 d 6
       hydro 2 s 4.9
  #  "Second tier" - improvements: -67.75 meV to -5.23 meV
       hydro 4 f 9.8
       hydro 3 p 5.2
       hydro 3 s 4.3
       hydro 5 g 14.4
       hydro 3 d 6.2
  #  "Third tier" - improvements: -2.43 meV to -0.60 meV
  #     hydro 2 p 5.6
  #     hydro 2 s 1.4
  #     hydro 3 d 4.9
  #     hydro 4 f 11.2
  #  "Fourth tier" - improvements: -0.39 meV to -0.18 meV
  #     hydro 2 p 2.1
  #     hydro 5 g 16.4
  #     hydro 4 d 13.2
  #     hydro 3 s 13.6
  #     hydro 4 f 17.6
  #  Further basis functions - improvements: -0.08 meV and below
  #     hydro 3 s 2
  #     hydro 3 p 6
  #     hydro 4 d 20
  ################################################################################
  #
  # For methods that use the localized form of the "resolution of identity" for
  # the two-electron Coulomb operator (RI_method LVL), particularly Hartree-Fock and
  # hybrid density functional calculations, the highest accuracy can be obtained by
  # uncommenting the line beginning with "for_aux"  below, thus adding an extra g radial
  # function to the construction of the product basis set for the expansion.
  # See Ref. New J. Phys. 17, 093020 (2015) for more information, particularly Figs. 1 and 6.
  #
  ################################################################################
  #
  # for_aux hydro 5 g 6.0
  ################################################################################
  #
  #  FHI-aims code project
  # Volker Blum, Fritz Haber Institute Berlin, 2009
  #
  #  Suggested "tight" defaults for O atom (to be pasted into control.in file)
  #
  ################################################################################
    species        O
  #     global species definitions
      nucleus             8
      mass                15.9994
  #
      l_hartree           6
  #
      cut_pot             4.0  2.0  1.0
      basis_dep_cutoff    1e-4
  #
      radial_base         36 7.0
      radial_multiplier   2
       angular_grids specified
        division   0.1817   50
        division   0.3417  110
        division   0.4949  194
        division   0.6251  302
        division   0.8014  434
  #      division   0.8507  590
  #      division   0.8762  770
  #      division   0.9023  974
  #      division   1.2339 1202
  #      outer_grid 974
        outer_grid  434
  ################################################################################
  #
  #  Definition of "minimal" basis
  #
  ################################################################################
  #     valence basis states
      valence      2  s   2.
      valence      2  p   4.
  #     ion occupancy
      ion_occ      2  s   1.
      ion_occ      2  p   3.
  ################################################################################
  #
  #  Suggested additional basis functions. For production calculations,
  #  uncomment them one after another (the most important basis functions are
  #  listed first).
  #
  #  Constructed for dimers: 1.0 A, 1.208 A, 1.5 A, 2.0 A, 3.0 A
  #
  ################################################################################
  #  "First tier" - improvements: -699.05 meV to -159.38 meV
       hydro 2 p 1.8
       hydro 3 d 7.6
       hydro 3 s 6.4
  #  "Second tier" - improvements: -49.91 meV to -5.39 meV
       hydro 4 f 11.6
       hydro 3 p 6.2
       hydro 3 d 5.6
       hydro 5 g 17.6
       hydro 1 s 0.75
  #  "Third tier" - improvements: -2.83 meV to -0.50 meV
  #     ionic 2 p auto
  #     hydro 4 f 10.8
  #     hydro 4 d 4.7
  #     hydro 2 s 6.8
  #  "Fourth tier" - improvements: -0.40 meV to -0.12 meV
  #     hydro 3 p 5
  #     hydro 3 s 3.3
  #     hydro 5 g 15.6
  #     hydro 4 f 17.6
  #     hydro 4 d 14
  # Further basis functions - -0.08 meV and below
  #     hydro 3 s 2.1
  #     hydro 4 d 11.6
  #     hydro 3 p 16
  #     hydro 2 s 17.2
  ################################################################################
  #
  # For methods that use the localized form of the "resolution of identity" for
  # the two-electron Coulomb operator (RI_method LVL), particularly Hartree-Fock and
  # hybrid density functional calculations, the highest accuracy can be obtained by
  # uncommenting the line beginning with "for_aux"  below, thus adding an extra g radial
  # function to the construction of the product basis set for the expansion.
  # See Ref. New J. Phys. 17, 093020 (2015) for more information, particularly Figs. 1 and 6.
  #
  ################################################################################
  #
  # for_aux hydro 5 g 6.0
  ################################################################################
  #
  #  FHI-aims code project
  # Volker Blum, Fritz Haber Institute Berlin, 2009
  #
  #  Suggested "tight" defaults for N atom (to be pasted into control.in file)
  #
  ################################################################################
    species        N
  #     global species definitions
      nucleus             7
      mass                14.0067
  #
      l_hartree           6
  #
      cut_pot             4.0  2.0  1.0
      basis_dep_cutoff    1e-4
  #
      radial_base         35 7.0
      radial_multiplier   2
      angular_grids       specified
        division   0.1841   50
        division   0.3514  110
        division   0.5126  194
        division   0.6292  302
        division   0.6939  434
  #      division   0.7396  590
  #      division   0.7632  770
  #      division   0.8122  974
  #      division   1.1604 1202
  #      outer_grid  974
        outer_grid  434
  ################################################################################
  #
  #  Definition of "minimal" basis
  #
  ################################################################################
  #     valence basis states
      valence      2  s   2.
      valence      2  p   3.
  #     ion occupancy
      ion_occ      2  s   1.
      ion_occ      2  p   2.
  ################################################################################
  #
  #  Suggested additional basis functions. For production calculations,
  #  uncomment them one after another (the most important basis functions are
  #  listed first).
  #
  #  Constructed for dimers: 1.0 A, 1.1 A, 1.5 A, 2.0 A, 3.0 A
  #
  ################################################################################
  #  "First tier" - improvements: -1193.42 meV to -220.60 meV
       hydro 2 p 1.8
       hydro 3 d 6.8
       hydro 3 s 5.8
  #  "Second tier" - improvements: -80.21 meV to -6.86 meV
       hydro 4 f 10.8
       hydro 3 p 5.8
       hydro 1 s 0.8
       hydro 5 g 16
       hydro 3 d 4.9
  #  "Third tier" - improvements: -4.29 meV to -0.53 meV
  #     hydro 3 s 16
  #     ionic 2 p auto
  #     hydro 3 d 6.6
  #     hydro 4 f 11.6
  #  "Fourth tier" - improvements: -0.75 meV to -0.25 meV
  #     hydro 2 p 4.5
  #     hydro 2 s 2.4
  #     hydro 5 g 14.4
  #     hydro 4 d 14.4
  #     hydro 4 f 16.8
  # Further basis functions - -0.21 meV and below
  #     hydro 3 p 14.8
  #     hydro 3 s 4.4
  #     hydro 3 d 19.6
  #     hydro 5 g 12.8
  ################################################################################
  #
  # For methods that use the localized form of the "resolution of identity" for
  # the two-electron Coulomb operator (RI_method LVL), particularly Hartree-Fock and
  # hybrid density functional calculations, the highest accuracy can be obtained by
  # uncommenting the line beginning with "for_aux"  below, thus adding an extra g radial
  # function to the construction of the product basis set for the expansion.
  # See Ref. New J. Phys. 17, 093020 (2015) for more information, particularly Figs. 1 and 6.
  #
  ################################################################################
  #
  # for_aux hydro 5 g 6.0
  
  -----------------------------------------------------------------------
  Completed first pass over input file control.in .
  -----------------------------------------------------------------------
  
  
  -----------------------------------------------------------------------
  Parsing geometry.in (first pass over file, find array dimensions only).
  The contents of geometry.in will be repeated verbatim below
  unless switched off by setting 'verbatim_writeout .false.' .
  in the first line of geometry.in .
  -----------------------------------------------------------------------
  
  #
  # This is the geometry file that corresponds to the current relaxation step.
  # If you do not want this file to be written, set the "write_restart_geometry" flag to .false.
  #  aims_uuid : C3A2C4B5-580C-4643-A664-D6841F9A2A92
  #
  lattice_vector     13.12563546     -0.18608887     -0.00089902
  lattice_vector     -2.04128058      4.78956479      0.00761021
  lattice_vector     -0.00370481     -0.02117027     13.94888709
  atom       4.23132454      1.73889538     10.73883700 O
  atom       4.67754482      2.64696185     10.63464139 H
  atom       4.82322011      1.07967791     11.72278164 C
  atom       5.80715218      1.52715235     12.33027321 O
  atom       4.21385127     -0.23526680     12.07448587 C
  atom       3.01126287     -0.75480464     11.55031587 C
  atom       2.18413418     -0.02623893     10.69496291 O
  atom       2.50976688      0.06267498      9.35288122 C
  atom       3.43882044     -0.53654981      8.85542690 O
  atom       1.54435768      0.97006971      8.66256258 C
  atom       1.66115992      0.89431351      7.57683285 H
  atom       1.73463702      2.00764554      8.97691776 H
  atom       0.51137192      0.72816753      8.94682725 H
  atom       2.51619157     -1.98802039     11.97261262 C
  atom       1.57269020     -2.35289541     11.56487084 H
  atom       3.21167572     -2.73446508     12.92120152 C
  atom       2.80369148     -3.68637606     13.26137813 H
  atom       4.40657729     -2.24330418     13.45242658 C
  atom       4.96296309     -2.82791052     14.18569238 H
  atom       4.89264170     -1.00931011     13.03449710 C
  atom       5.82077824     -0.60668610     13.44203787 H
  atom      10.45471230      3.17554656      3.76588392 O
  atom      10.00854559      2.26761201      3.65853515 H
  atom       9.86317352      3.83134147      4.75218338 C
  atom       8.87908427      3.38190466      5.35809088 O
  atom      10.47294234      5.14483990      5.10840260 C
  atom      11.67607187      5.66516963      4.58615030 C
  atom      12.50323801      4.93823009      3.72945994 O
  atom      12.17931696      4.85419905      2.38667816 C
  atom      11.25151922      5.45604401      1.88997743 O
  atom      13.14491513      3.94852818      1.69438160 C
  atom      13.02728576      4.02598226      0.60885204 H
  atom      12.95613469      2.91022149      2.00725638 H
  atom      14.17788837      4.19122144      1.97816176 H
  atom      12.17163696      6.89693985      5.01197673 C
  atom      13.11576534      7.26264181      4.60602210 H
  atom      11.47614460      7.64095359      5.96245918 C
  atom      11.88431702      8.59166086      6.30580688 H
  atom      10.28076820      7.14892137      6.49195656 C
  atom       9.72486479      7.73171427      7.22691135 H
  atom       9.79414480      5.91637325      6.07044384 C
  atom       8.86567895      5.51326969      6.47669831 H
  atom       6.37848334      4.07888987      4.83657219 O
  atom       7.32645311      3.79442063      5.04602251 H
  atom       6.41804107      5.09753447      3.99092863 C
  atom       7.49300308      5.55174714      3.56637973 O
  atom       5.10366268      5.64510196      3.55672679 C
  atom       3.86031818      5.36256078      4.16186054 C
  atom       3.71777762      4.43444697      5.18930691 O
  atom       4.20177481      4.75959973      6.45610559 C
  atom       4.58574548      5.87373524      6.73802415 O
  atom       4.16800494      3.55241266      7.33167655 C
  atom       4.27379754      3.85435698      8.37714211 H
  atom       5.00003042      2.89436034      7.03431448 H
  atom       3.23402708      2.99677244      7.18890124 H
  atom       2.68825678      5.94991508      3.69106547 C
  atom       1.75008169      5.71464635      4.19378156 H
  atom       2.72507203      6.80985587      2.59296844 C
  atom       1.80091086      7.27873577      2.24784292 H
  atom       3.93799322      7.08241965      1.95497567 C
  atom       3.99382928      7.73479884      1.08332450 H
  atom       5.10855916      6.51239874      2.44734036 C
  atom       6.05835054      6.73436591      1.96278398 H
  atom       8.30830958      0.83244820     11.80692076 O
  atom       7.36033136      1.11613107     12.01680790 H
  atom       8.26877078     -0.18330981     10.95765473 C
  atom       7.19389934     -0.63595473     10.53140391 O
  atom       9.58329019     -0.72921404     10.52179887 C
  atom      10.82659740     -0.44860679     11.12804540 C
  atom      10.96898687      0.47585714     12.15882298 O
  atom      10.48445013      0.14649656     13.42426299 C
  atom      10.10025851     -0.96855417     13.70230896 O
  atom      10.51817500      1.35068593     14.30396222 C
  atom      10.41133500      1.04523359     15.34830538 H
  atom       9.68681966      2.01026461     14.00817463 H
  atom      11.45270608      1.90610036     14.16387509 H
  atom      11.99885468     -1.03393985     10.65518924 C
  atom      12.93693062     -0.80000873     11.15868390 H
  atom      11.96228885     -1.89010494      9.55407300 C
  atom      12.88665811     -2.35717807      9.20712638 H
  atom      10.74934527     -2.16074753      8.91529936 C
  atom      10.69364232     -2.81059726      8.04157550 H
  atom       9.57871810     -1.59272843      9.40954544 C
  atom       8.62896358     -1.81368070      8.92446403 H
  
  -----------------------------------------------------------------------
  Completed first pass over input file geometry.in .
  -----------------------------------------------------------------------
  

  Basic array size parameters:
  | Number of species                 :        4
  | Number of atoms                   :       84
  | Number of lattice vectors         :        3
  | Max. basis fn. angular momentum   :        4
  | Max. atomic/ionic basis occupied n:        2
  | Max. number of basis fn. types    :        2
  | Max. radial fns per species/type  :        8
  | Max. logarithmic grid size        :     1301
  | Max. radial integration grid size :       73
  | Max. angular integration grid size:      434
  | Max. angular grid division number :        8
  | Radial grid for Hartree potential :     1301
  | Number of spin channels           :        1

------------------------------------------------------------
          Reading file control.in.
------------------------------------------------------------
  XC: Using PBE gradient-corrected functionals.
  Spin treatment: No spin polarisation.
  Non-relativistic treatment of kinetic energy.
  Charge =   0.000000E+00: Neutral system requested explicitly.
  Occupation type: Gaussian broadening, width =   0.100000E-01 eV.
  Using pulay charge density mixing.
  Pulay mixing - number of memorized iterations:    8
  Charge density mixing - mixing parameter:     0.2000
  Convergence accuracy of self-consistent charge density:  0.1000E-03
  Convergence accuracy of sum of eigenvalues:  0.1000E-01
  Convergence accuracy of total energy:  0.1000E-05
  Convergence accuracy of forces:  0.1000E-03
  Maximum number of s.-c. iterations  : 10000
  Consistency of geometry between different MPI tasks will be checked.
  Kohn-Sham electronic structure solved by the ELSI library.
  Number of empty states per atom:        6
  Threshold for basis singularities:  0.1000E-04
  Found k-point grid:         3         3         3
  Using libMBD for calculating MBD and TS energies
 
  Reading configuration options for species H                   .
  | Found nuclear charge :   1.0000
  | Found atomic mass :    1.00794000000000      amu
  | Found l_max for Hartree potential  :   6
  | Found cutoff potl. onset [A], width [A], scale factor :    4.00000    2.00000    1.00000
  | Threshold for basis-dependent cutoff potential is   0.100000E-03
  | Found data for basic radial integration grid :    24 points, outermost radius =    7.000 A
  | Found multiplier for basic radial grid :   2
  | Found angular grid specification: user-specified.
  | Specified grid contains     6 separate shells.
  | Check grid settings after all constraints further below.
  | Found free-atom valence shell :  1 s   1.000
  | No ionic wave fns used. Skipping ion_occ.
  | Found hydrogenic basis function :  2 s   2.100
  | Found hydrogenic basis function :  2 p   3.500
  | Found hydrogenic basis function :  1 s   0.850
  | Found hydrogenic basis function :  2 p   3.700
  | Found hydrogenic basis function :  2 s   1.200
  | Found hydrogenic basis function :  3 d   7.000
  Species H                   : Missing cutoff potential type.
  Defaulting to exp(1/x)/(1-x)^2 type cutoff potential.
  Species H : No 'logarithmic' tag. Using default grid for free atom:
  | Default logarithmic grid data [bohr] : 0.1000E-03 0.1000E+03 0.1012E+01
  Species H : On-site basis accuracy parameter (for Gram-Schmidt orthonormalisation) not specified.
  Using default value basis_acc =  0.1000000E-03.
  Species H                   : Using default innermost maximum threshold i_radial=  2 for radial functions.
  Species H                   : Default cutoff onset for free atom density etc. : 0.40000000E+01 AA.
  Species H                   : Basic radial grid will be enhanced according to radial_multiplier =   2, to contain    49 grid points.
 
  Reading configuration options for species C                   .
  | Found nuclear charge :   6.0000
  | Found atomic mass :    12.0107000000000      amu
  | Found l_max for Hartree potential  :   6
  | Found cutoff potl. onset [A], width [A], scale factor :    4.00000    2.00000    1.00000
  | Threshold for basis-dependent cutoff potential is   0.100000E-03
  | Found data for basic radial integration grid :    34 points, outermost radius =    7.000 A
  | Found multiplier for basic radial grid :   2
  | Found angular grid specification: user-specified.
  | Specified grid contains     6 separate shells.
  | Check grid settings after all constraints further below.
  | Found free-atom valence shell :  2 s   2.000
  | Found free-atom valence shell :  2 p   2.000
  | No ionic wave fns used. Skipping ion_occ.
  | No ionic wave fns used. Skipping ion_occ.
  | Found hydrogenic basis function :  2 p   1.700
  | Found hydrogenic basis function :  3 d   6.000
  | Found hydrogenic basis function :  2 s   4.900
  | Found hydrogenic basis function :  4 f   9.800
  | Found hydrogenic basis function :  3 p   5.200
  | Found hydrogenic basis function :  3 s   4.300
  | Found hydrogenic basis function :  5 g  14.400
  | Found hydrogenic basis function :  3 d   6.200
  Species C                   : Missing cutoff potential type.
  Defaulting to exp(1/x)/(1-x)^2 type cutoff potential.
  Species C : No 'logarithmic' tag. Using default grid for free atom:
  | Default logarithmic grid data [bohr] : 0.1000E-03 0.1000E+03 0.1012E+01
  Species C : On-site basis accuracy parameter (for Gram-Schmidt orthonormalisation) not specified.
  Using default value basis_acc =  0.1000000E-03.
  Species C                   : Using default innermost maximum threshold i_radial=  2 for radial functions.
  Species C                   : Default cutoff onset for free atom density etc. : 0.40000000E+01 AA.
  Species C                   : Basic radial grid will be enhanced according to radial_multiplier =   2, to contain    69 grid points.
 
  Reading configuration options for species O                   .
  | Found nuclear charge :   8.0000
  | Found atomic mass :    15.9994000000000      amu
  | Found l_max for Hartree potential  :   6
  | Found cutoff potl. onset [A], width [A], scale factor :    4.00000    2.00000    1.00000
  | Threshold for basis-dependent cutoff potential is   0.100000E-03
  | Found data for basic radial integration grid :    36 points, outermost radius =    7.000 A
  | Found multiplier for basic radial grid :   2
  | Found angular grid specification: user-specified.
  | Specified grid contains     6 separate shells.
  | Check grid settings after all constraints further below.
  | Found free-atom valence shell :  2 s   2.000
  | Found free-atom valence shell :  2 p   4.000
  | No ionic wave fns used. Skipping ion_occ.
  | No ionic wave fns used. Skipping ion_occ.
  | Found hydrogenic basis function :  2 p   1.800
  | Found hydrogenic basis function :  3 d   7.600
  | Found hydrogenic basis function :  3 s   6.400
  | Found hydrogenic basis function :  4 f  11.600
  | Found hydrogenic basis function :  3 p   6.200
  | Found hydrogenic basis function :  3 d   5.600
  | Found hydrogenic basis function :  5 g  17.600
  | Found hydrogenic basis function :  1 s   0.750
  Species O                   : Missing cutoff potential type.
  Defaulting to exp(1/x)/(1-x)^2 type cutoff potential.
  Species O : No 'logarithmic' tag. Using default grid for free atom:
  | Default logarithmic grid data [bohr] : 0.1000E-03 0.1000E+03 0.1012E+01
  Species O : On-site basis accuracy parameter (for Gram-Schmidt orthonormalisation) not specified.
  Using default value basis_acc =  0.1000000E-03.
  Species O                   : Using default innermost maximum threshold i_radial=  2 for radial functions.
  Species O                   : Default cutoff onset for free atom density etc. : 0.40000000E+01 AA.
  Species O                   : Basic radial grid will be enhanced according to radial_multiplier =   2, to contain    73 grid points.
 
  Reading configuration options for species N                   .
  | Found nuclear charge :   7.0000
  | Found atomic mass :    14.0067000000000      amu
  | Found l_max for Hartree potential  :   6
  | Found cutoff potl. onset [A], width [A], scale factor :    4.00000    2.00000    1.00000
  | Threshold for basis-dependent cutoff potential is   0.100000E-03
  | Found data for basic radial integration grid :    35 points, outermost radius =    7.000 A
  | Found multiplier for basic radial grid :   2
  | Found angular grid specification: user-specified.
  | Specified grid contains     6 separate shells.
  | Check grid settings after all constraints further below.
  | Found free-atom valence shell :  2 s   2.000
  | Found free-atom valence shell :  2 p   3.000
  | No ionic wave fns used. Skipping ion_occ.
  | No ionic wave fns used. Skipping ion_occ.
  | Found hydrogenic basis function :  2 p   1.800
  | Found hydrogenic basis function :  3 d   6.800
  | Found hydrogenic basis function :  3 s   5.800
  | Found hydrogenic basis function :  4 f  10.800
  | Found hydrogenic basis function :  3 p   5.800
  | Found hydrogenic basis function :  1 s   0.800
  | Found hydrogenic basis function :  5 g  16.000
  | Found hydrogenic basis function :  3 d   4.900
  Species N                   : Missing cutoff potential type.
  Defaulting to exp(1/x)/(1-x)^2 type cutoff potential.
  Species N : No 'logarithmic' tag. Using default grid for free atom:
  | Default logarithmic grid data [bohr] : 0.1000E-03 0.1000E+03 0.1012E+01
  Species N : On-site basis accuracy parameter (for Gram-Schmidt orthonormalisation) not specified.
  Using default value basis_acc =  0.1000000E-03.
  Species N                   : Using default innermost maximum threshold i_radial=  2 for radial functions.
  Species N                   : Default cutoff onset for free atom density etc. : 0.40000000E+01 AA.
  Species N                   : Basic radial grid will be enhanced according to radial_multiplier =   2, to contain    71 grid points.
 
  Finished reading input file 'control.in'.
 
------------------------------------------------------------


------------------------------------------------------------
          Reading geometry description geometry.in.
------------------------------------------------------------
  | The smallest distance between any two atoms is         1.01152918 AA.
  | The first atom of this pair is atom number                     64 .
  | The second atom of this pair is atom number                    65 .
  | Wigner-Seitz cell of the first atom image           0     0     0 .
  | (The Wigner-Seitz cell of the second atom is 0 0 0  by definition.)

  Symmetry information by spglib:
  | Precision set to  0.1E-04
  | Number of Operations  : 1
  | Space group           : 1
  | International         : P1  E
  | Schoenflies           : C1^1
  Input structure read successfully.
  The structure contains       84 atoms,  and a total of        376.000 electrons.

  Input geometry:
  | Unit cell:
  |       13.12563546       -0.18608887       -0.00089902
  |       -2.04128058        4.78956479        0.00761021
  |       -0.00370481       -0.02117027       13.94888709
  | Atomic structure:
  |       Atom                x [A]            y [A]            z [A]
  |    1: Species O             4.23132454        1.73889538       10.73883700
  |    2: Species H             4.67754482        2.64696185       10.63464139
  |    3: Species C             4.82322011        1.07967791       11.72278164
  |    4: Species O             5.80715218        1.52715235       12.33027321
  |    5: Species C             4.21385127       -0.23526680       12.07448587
  |    6: Species C             3.01126287       -0.75480464       11.55031587
  |    7: Species O             2.18413418       -0.02623893       10.69496291
  |    8: Species C             2.50976688        0.06267498        9.35288122
  |    9: Species O             3.43882044       -0.53654981        8.85542690
  |   10: Species C             1.54435768        0.97006971        8.66256258
  |   11: Species H             1.66115992        0.89431351        7.57683285
  |   12: Species H             1.73463702        2.00764554        8.97691776
  |   13: Species H             0.51137192        0.72816753        8.94682725
  |   14: Species C             2.51619157       -1.98802039       11.97261262
  |   15: Species H             1.57269020       -2.35289541       11.56487084
  |   16: Species C             3.21167572       -2.73446508       12.92120152
  |   17: Species H             2.80369148       -3.68637606       13.26137813
  |   18: Species C             4.40657729       -2.24330418       13.45242658
  |   19: Species H             4.96296309       -2.82791052       14.18569238
  |   20: Species C             4.89264170       -1.00931011       13.03449710
  |   21: Species H             5.82077824       -0.60668610       13.44203787
  |   22: Species O            10.45471230        3.17554656        3.76588392
  |   23: Species H            10.00854559        2.26761201        3.65853515
  |   24: Species C             9.86317352        3.83134147        4.75218338
  |   25: Species O             8.87908427        3.38190466        5.35809088
  |   26: Species C            10.47294234        5.14483990        5.10840260
  |   27: Species C            11.67607187        5.66516963        4.58615030
  |   28: Species O            12.50323801        4.93823009        3.72945994
  |   29: Species C            12.17931696        4.85419905        2.38667816
  |   30: Species O            11.25151922        5.45604401        1.88997743
  |   31: Species C            13.14491513        3.94852818        1.69438160
  |   32: Species H            13.02728576        4.02598226        0.60885204
  |   33: Species H            12.95613469        2.91022149        2.00725638
  |   34: Species H            14.17788837        4.19122144        1.97816176
  |   35: Species C            12.17163696        6.89693985        5.01197673
  |   36: Species H            13.11576534        7.26264181        4.60602210
  |   37: Species C            11.47614460        7.64095359        5.96245918
  |   38: Species H            11.88431702        8.59166086        6.30580688
  |   39: Species C            10.28076820        7.14892137        6.49195656
  |   40: Species H             9.72486479        7.73171427        7.22691135
  |   41: Species C             9.79414480        5.91637325        6.07044384
  |   42: Species H             8.86567895        5.51326969        6.47669831
  |   43: Species O             6.37848334        4.07888987        4.83657219
  |   44: Species H             7.32645311        3.79442063        5.04602251
  |   45: Species C             6.41804107        5.09753447        3.99092863
  |   46: Species O             7.49300308        5.55174714        3.56637973
  |   47: Species C             5.10366268        5.64510196        3.55672679
  |   48: Species C             3.86031818        5.36256078        4.16186054
  |   49: Species O             3.71777762        4.43444697        5.18930691
  |   50: Species C             4.20177481        4.75959973        6.45610559
  |   51: Species O             4.58574548        5.87373524        6.73802415
  |   52: Species C             4.16800494        3.55241266        7.33167655
  |   53: Species H             4.27379754        3.85435698        8.37714211
  |   54: Species H             5.00003042        2.89436034        7.03431448
  |   55: Species H             3.23402708        2.99677244        7.18890124
  |   56: Species C             2.68825678        5.94991508        3.69106547
  |   57: Species H             1.75008169        5.71464635        4.19378156
  |   58: Species C             2.72507203        6.80985587        2.59296844
  |   59: Species H             1.80091086        7.27873577        2.24784292
  |   60: Species C             3.93799322        7.08241965        1.95497567
  |   61: Species H             3.99382928        7.73479884        1.08332450
  |   62: Species C             5.10855916        6.51239874        2.44734036
  |   63: Species H             6.05835054        6.73436591        1.96278398
  |   64: Species O             8.30830958        0.83244820       11.80692076
  |   65: Species H             7.36033136        1.11613107       12.01680790
  |   66: Species C             8.26877078       -0.18330981       10.95765473
  |   67: Species O             7.19389934       -0.63595473       10.53140391
  |   68: Species C             9.58329019       -0.72921404       10.52179887
  |   69: Species C            10.82659740       -0.44860679       11.12804540
  |   70: Species O            10.96898687        0.47585714       12.15882298
  |   71: Species C            10.48445013        0.14649656       13.42426299
  |   72: Species O            10.10025851       -0.96855417       13.70230896
  |   73: Species C            10.51817500        1.35068593       14.30396222
  |   74: Species H            10.41133500        1.04523359       15.34830538
  |   75: Species H             9.68681966        2.01026461       14.00817463
  |   76: Species H            11.45270608        1.90610036       14.16387509
  |   77: Species C            11.99885468       -1.03393985       10.65518924
  |   78: Species H            12.93693062       -0.80000873       11.15868390
  |   79: Species C            11.96228885       -1.89010494        9.55407300
  |   80: Species H            12.88665811       -2.35717807        9.20712638
  |   81: Species C            10.74934527       -2.16074753        8.91529936
  |   82: Species H            10.69364232       -2.81059726        8.04157550
  |   83: Species C             9.57871810       -1.59272843        9.40954544
  |   84: Species H             8.62896358       -1.81368070        8.92446403

  Lattice parameters for 3D lattice (in Angstroms) :    13.126955    5.206421   13.948904
  Angle(s) between unit vectors (in degrees)       :    89.990280   90.017907  113.895616


  Quantities derived from the lattice vectors (in Angstrom^-1):
  | Reciprocal lattice vector 1:  0.481606  0.205256  0.000439
  | Reciprocal lattice vector 2:  0.018712  1.319821  0.002008
  | Reciprocal lattice vector 3:  0.000021 -0.000707  0.450442
  | Unit cell volume                               :   0.871615E+03  Angstrom^3

  Fractional coordinates:
                         L1                L2                L3
       atom_frac         0.38188732        0.38129870        0.76968711  O
       atom_frac         0.44574712        0.57333907        0.76211664  H
       atom_frac         0.40578985        0.24490332        0.84030236  C
       atom_frac         0.49586858        0.34202239        0.88380643  O
       atom_frac         0.31615030       -0.03301103        0.86566199  C
       atom_frac         0.20696327       -0.14589199        0.82813863  C
       atom_frac         0.16730457        0.00441095        0.76673355  O
       atom_frac         0.19507503        0.02362869        0.67051061  C
       atom_frac         0.24667692       -0.09963423        0.63491853  O
       atom_frac         0.15067059        0.21113668        0.62091629  C
       atom_frac         0.15707277        0.19522449        0.54308909  H
       atom_frac         0.19917257        0.42975281        0.64333636  H
       atom_frac         0.06360982        0.15733820        0.64131905  H
       atom_frac         0.12875945       -0.40627573        0.85855023  C
       atom_frac         0.04449203       -0.48586006        0.82935709  H
       atom_frac         0.15775006       -0.56069652        0.92664098  C
       atom_frac         0.09540526       -0.76175740        0.95113402  H
       atom_frac         0.26542139       -0.45379693        0.96467328  C
       atom_frac         0.28902193       -0.57470567        1.01730882  H
       atom_frac         0.34296056       -0.19327513        0.93457465  C
       atom_frac         0.42728343       -0.10580723        0.96374909  H
       atom_frac         0.90535385        0.69938118        0.26965416  O
       atom_frac         0.84148766        0.50730107        0.26205897  H
       atom_frac         0.88150465        0.83568838        0.34028637  C
       atom_frac         0.79143463        0.73854443        0.38377126  O
       atom_frac         0.97117712        1.11352636        0.36567803  C
       atom_frac         1.08035831        1.22624085        0.32818314  C
       atom_frac         1.11995327        1.07573245        0.26685141  O
       atom_frac         1.09228574        1.05668741        0.17059558  C
       atom_frac         1.04079619        1.18018673        0.13491626  O
       atom_frac         1.13666429        0.86910022        0.12106983  C
       atom_frac         1.13010232        0.88467268        0.04323897  H
       atom_frac         1.08829719        0.65053549        0.14361605  H
       atom_frac         1.22378967        0.92324638        0.14139020  H
       atom_frac         1.15861208        1.48659348        0.35857377  C
       atom_frac         1.24289767        1.56609332        0.32943282  H
       atom_frac         1.12967424        1.64111053        0.42662798  C
       atom_frac         1.19204195        1.84213758        0.45113703  H
       atom_frac         1.02201224        1.53436551        0.46463911  C
       atom_frac         0.99849212        1.65536399        0.51726072  H
       atom_frac         0.94441874        1.27387749        0.43455785  C
       atom_frac         0.86011189        1.18656796        0.46372456  H
       atom_frac         0.62249607        0.87733664        0.34629681  O
       atom_frac         0.68587962        0.82047225        0.36134748  H
       atom_frac         0.65874568        1.09115656        0.28555804  C
       atom_frac         0.75594979        1.18963230        0.25507454  O
       atom_frac         0.57585600        1.20212327        0.25436410  C
       atom_frac         0.47136611        1.13926441        0.29777388  C
       atom_frac         0.43019301        0.94421243        0.37153559  O
       atom_frac         0.47800191        1.01435896        0.46231759  C
       atom_frac         0.54384907        1.24962338        0.48240431  O
       atom_frac         0.43603881        0.76096136        0.52522308  C
       atom_frac         0.45408471        0.82503575        0.60013904  H
       atom_frac         0.47829573        0.62511636        0.50398194  H
       atom_frac         0.34628806        0.64141871        0.51504691  H
       atom_frac         0.40068219        1.25900072        0.26395256  C
       atom_frac         0.32112063        1.20694781        0.30001570  H
       atom_frac         0.43151947        1.43939511        0.18513321  C
       atom_frac         0.37597561        1.53502360        0.16033531  H
       atom_frac         0.53334918        1.50005706        0.13936878  C
       atom_frac         0.55887970        1.63698091        0.07680679  H
       atom_frac         0.60448622        1.38396417        0.17473448  C
       atom_frac         0.68450491        1.43326341        0.13997475  H
       atom_frac         0.66485123        0.20337705        0.84637367  O
       atom_frac         0.60147067        0.26021025        0.86138545  H
       atom_frac         0.62857883       -0.01037815        0.78560381  C
       atom_frac         0.53137337       -0.10879622        0.75509319  O
       atom_frac         0.71147281       -0.12127313        0.75442301  C
       atom_frac         0.81598139       -0.05843347        0.79785746  C
       atom_frac         0.85716762        0.13650918        0.87165052  O
       atom_frac         0.80935700        0.06628646        0.96240554  C
       atom_frac         0.74350217       -0.16899191        0.98246286  O
       atom_frac         0.85134149        0.31961521        1.02533594  C
       atom_frac         0.83324686        0.25546870        1.10023905  H
       atom_frac         0.80914430        0.45559326        1.00405393  H
       atom_frac         0.94110748        0.43902168        1.01523369  H
       atom_frac         0.88668035       -0.17804620        0.76402808  C
       atom_frac         0.96626099       -0.12595298        0.80010047  H
       atom_frac         0.85583173       -0.35834960        0.68518509  C
       atom_frac         0.91140216       -0.45381913        0.66036805  H
       atom_frac         0.75397376       -0.41901610        0.63941775  C
       atom_frac         0.72841401       -0.55596604        0.57685329  H
       atom_frac         0.68283564       -0.30302857        0.67478254  C
       atom_frac         0.60278511       -0.35242440        0.64002869  H

 
  Finished reading input file 'geometry.in'.
 

 
  Consistency checks for stacksize environment parameter are next.
 
  | Maximum stacksize for task 0: unlimited
  | Maximum stacksize for task 1: unlimited
  | Maximum stacksize for task 2: unlimited
  | Maximum stacksize for task 3: unlimited
  | Maximum stacksize for task 4: unlimited
  | Maximum stacksize for task 5: unlimited
  | Maximum stacksize for task 6: unlimited
  | Maximum stacksize for task 7: unlimited
  | Maximum stacksize for task 8: unlimited
  | Maximum stacksize for task 9: unlimited
  | Maximum stacksize for task 10: unlimited
  | Maximum stacksize for task 11: unlimited
  | Maximum stacksize for task 12: unlimited
  | Maximum stacksize for task 13: unlimited
  | Maximum stacksize for task 14: unlimited
  | Maximum stacksize for task 15: unlimited
  | Maximum stacksize for task 16: unlimited
  | Maximum stacksize for task 17: unlimited
  | Maximum stacksize for task 18: unlimited
  | Maximum stacksize for task 19: unlimited
  | Maximum stacksize for task 20: unlimited
  | Maximum stacksize for task 21: unlimited
  | Maximum stacksize for task 22: unlimited
  | Maximum stacksize for task 23: unlimited
  | Maximum stacksize for task 24: unlimited
  | Maximum stacksize for task 25: unlimited
  | Maximum stacksize for task 26: unlimited
  | Maximum stacksize for task 27: unlimited
  | Maximum stacksize for task 28: unlimited
  | Maximum stacksize for task 29: unlimited
  | Maximum stacksize for task 30: unlimited
  | Maximum stacksize for task 31: unlimited
  | Maximum stacksize for task 32: unlimited
  | Maximum stacksize for task 33: unlimited
  | Maximum stacksize for task 34: unlimited
  | Maximum stacksize for task 35: unlimited
  | Maximum stacksize for task 36: unlimited
  | Maximum stacksize for task 37: unlimited
  | Maximum stacksize for task 38: unlimited
  | Maximum stacksize for task 39: unlimited
  | Maximum stacksize for task 40: unlimited
  | Maximum stacksize for task 41: unlimited
  | Maximum stacksize for task 42: unlimited
  | Maximum stacksize for task 43: unlimited
  | Maximum stacksize for task 44: unlimited
  | Maximum stacksize for task 45: unlimited
  | Maximum stacksize for task 46: unlimited
  | Maximum stacksize for task 47: unlimited
  | Maximum stacksize for task 48: unlimited
  | Maximum stacksize for task 49: unlimited
  | Maximum stacksize for task 50: unlimited
  | Maximum stacksize for task 51: unlimited
  | Maximum stacksize for task 52: unlimited
  | Maximum stacksize for task 53: unlimited
  | Maximum stacksize for task 54: unlimited
  | Maximum stacksize for task 55: unlimited
  | Maximum stacksize for task 56: unlimited
  | Maximum stacksize for task 57: unlimited
  | Maximum stacksize for task 58: unlimited
  | Maximum stacksize for task 59: unlimited
  | Maximum stacksize for task 60: unlimited
  | Maximum stacksize for task 61: unlimited
  | Maximum stacksize for task 62: unlimited
  | Maximum stacksize for task 63: unlimited
  | Maximum stacksize for task 64: unlimited
  | Maximum stacksize for task 65: unlimited
  | Maximum stacksize for task 66: unlimited
  | Maximum stacksize for task 67: unlimited
  | Maximum stacksize for task 68: unlimited
  | Maximum stacksize for task 69: unlimited
  | Maximum stacksize for task 70: unlimited
  | Maximum stacksize for task 71: unlimited
  | Maximum stacksize for task 72: unlimited
  | Maximum stacksize for task 73: unlimited
  | Maximum stacksize for task 74: unlimited
  | Maximum stacksize for task 75: unlimited
  | Maximum stacksize for task 76: unlimited
  | Maximum stacksize for task 77: unlimited
  | Maximum stacksize for task 78: unlimited
  | Maximum stacksize for task 79: unlimited
  | Maximum stacksize for task 80: unlimited
  | Maximum stacksize for task 81: unlimited
  | Maximum stacksize for task 82: unlimited
  | Maximum stacksize for task 83: unlimited
  | Maximum stacksize for task 84: unlimited
  | Maximum stacksize for task 85: unlimited
  | Maximum stacksize for task 86: unlimited
  | Maximum stacksize for task 87: unlimited
  | Maximum stacksize for task 88: unlimited
  | Maximum stacksize for task 89: unlimited
  | Maximum stacksize for task 90: unlimited
  | Maximum stacksize for task 91: unlimited
  | Maximum stacksize for task 92: unlimited
  | Maximum stacksize for task 93: unlimited
  | Maximum stacksize for task 94: unlimited
  | Maximum stacksize for task 95: unlimited
  | Maximum stacksize for task 96: unlimited
  | Maximum stacksize for task 97: unlimited
  | Maximum stacksize for task 98: unlimited
  | Maximum stacksize for task 99: unlimited
  | Maximum stacksize for task 100: unlimited
  | Maximum stacksize for task 101: unlimited
  | Maximum stacksize for task 102: unlimited
  | Maximum stacksize for task 103: unlimited
  | Maximum stacksize for task 104: unlimited
  | Maximum stacksize for task 105: unlimited
  | Maximum stacksize for task 106: unlimited
  | Maximum stacksize for task 107: unlimited
  | Maximum stacksize for task 108: unlimited
  | Maximum stacksize for task 109: unlimited
  | Maximum stacksize for task 110: unlimited
  | Maximum stacksize for task 111: unlimited
  | Maximum stacksize for task 112: unlimited
  | Maximum stacksize for task 113: unlimited
  | Maximum stacksize for task 114: unlimited
  | Maximum stacksize for task 115: unlimited
  | Maximum stacksize for task 116: unlimited
  | Maximum stacksize for task 117: unlimited
  | Maximum stacksize for task 118: unlimited
  | Maximum stacksize for task 119: unlimited
  | Maximum stacksize for task 120: unlimited
  | Maximum stacksize for task 121: unlimited
  | Maximum stacksize for task 122: unlimited
  | Maximum stacksize for task 123: unlimited
  | Maximum stacksize for task 124: unlimited
  | Maximum stacksize for task 125: unlimited
  | Maximum stacksize for task 126: unlimited
  | Maximum stacksize for task 127: unlimited
  | Current stacksize for task 0: unlimited
  | Current stacksize for task 1: unlimited
  | Current stacksize for task 2: unlimited
  | Current stacksize for task 3: unlimited
  | Current stacksize for task 4: unlimited
  | Current stacksize for task 5: unlimited
  | Current stacksize for task 6: unlimited
  | Current stacksize for task 7: unlimited
  | Current stacksize for task 8: unlimited
  | Current stacksize for task 9: unlimited
  | Current stacksize for task 10: unlimited
  | Current stacksize for task 11: unlimited
  | Current stacksize for task 12: unlimited
  | Current stacksize for task 13: unlimited
  | Current stacksize for task 14: unlimited
  | Current stacksize for task 15: unlimited
  | Current stacksize for task 16: unlimited
  | Current stacksize for task 17: unlimited
  | Current stacksize for task 18: unlimited
  | Current stacksize for task 19: unlimited
  | Current stacksize for task 20: unlimited
  | Current stacksize for task 21: unlimited
  | Current stacksize for task 22: unlimited
  | Current stacksize for task 23: unlimited
  | Current stacksize for task 24: unlimited
  | Current stacksize for task 25: unlimited
  | Current stacksize for task 26: unlimited
  | Current stacksize for task 27: unlimited
  | Current stacksize for task 28: unlimited
  | Current stacksize for task 29: unlimited
  | Current stacksize for task 30: unlimited
  | Current stacksize for task 31: unlimited
  | Current stacksize for task 32: unlimited
  | Current stacksize for task 33: unlimited
  | Current stacksize for task 34: unlimited
  | Current stacksize for task 35: unlimited
  | Current stacksize for task 36: unlimited
  | Current stacksize for task 37: unlimited
  | Current stacksize for task 38: unlimited
  | Current stacksize for task 39: unlimited
  | Current stacksize for task 40: unlimited
  | Current stacksize for task 41: unlimited
  | Current stacksize for task 42: unlimited
  | Current stacksize for task 43: unlimited
  | Current stacksize for task 44: unlimited
  | Current stacksize for task 45: unlimited
  | Current stacksize for task 46: unlimited
  | Current stacksize for task 47: unlimited
  | Current stacksize for task 48: unlimited
  | Current stacksize for task 49: unlimited
  | Current stacksize for task 50: unlimited
  | Current stacksize for task 51: unlimited
  | Current stacksize for task 52: unlimited
  | Current stacksize for task 53: unlimited
  | Current stacksize for task 54: unlimited
  | Current stacksize for task 55: unlimited
  | Current stacksize for task 56: unlimited
  | Current stacksize for task 57: unlimited
  | Current stacksize for task 58: unlimited
  | Current stacksize for task 59: unlimited
  | Current stacksize for task 60: unlimited
  | Current stacksize for task 61: unlimited
  | Current stacksize for task 62: unlimited
  | Current stacksize for task 63: unlimited
  | Current stacksize for task 64: unlimited
  | Current stacksize for task 65: unlimited
  | Current stacksize for task 66: unlimited
  | Current stacksize for task 67: unlimited
  | Current stacksize for task 68: unlimited
  | Current stacksize for task 69: unlimited
  | Current stacksize for task 70: unlimited
  | Current stacksize for task 71: unlimited
  | Current stacksize for task 72: unlimited
  | Current stacksize for task 73: unlimited
  | Current stacksize for task 74: unlimited
  | Current stacksize for task 75: unlimited
  | Current stacksize for task 76: unlimited
  | Current stacksize for task 77: unlimited
  | Current stacksize for task 78: unlimited
  | Current stacksize for task 79: unlimited
  | Current stacksize for task 80: unlimited
  | Current stacksize for task 81: unlimited
  | Current stacksize for task 82: unlimited
  | Current stacksize for task 83: unlimited
  | Current stacksize for task 84: unlimited
  | Current stacksize for task 85: unlimited
  | Current stacksize for task 86: unlimited
  | Current stacksize for task 87: unlimited
  | Current stacksize for task 88: unlimited
  | Current stacksize for task 89: unlimited
  | Current stacksize for task 90: unlimited
  | Current stacksize for task 91: unlimited
  | Current stacksize for task 92: unlimited
  | Current stacksize for task 93: unlimited
  | Current stacksize for task 94: unlimited
  | Current stacksize for task 95: unlimited
  | Current stacksize for task 96: unlimited
  | Current stacksize for task 97: unlimited
  | Current stacksize for task 98: unlimited
  | Current stacksize for task 99: unlimited
  | Current stacksize for task 100: unlimited
  | Current stacksize for task 101: unlimited
  | Current stacksize for task 102: unlimited
  | Current stacksize for task 103: unlimited
  | Current stacksize for task 104: unlimited
  | Current stacksize for task 105: unlimited
  | Current stacksize for task 106: unlimited
  | Current stacksize for task 107: unlimited
  | Current stacksize for task 108: unlimited
  | Current stacksize for task 109: unlimited
  | Current stacksize for task 110: unlimited
  | Current stacksize for task 111: unlimited
  | Current stacksize for task 112: unlimited
  | Current stacksize for task 113: unlimited
  | Current stacksize for task 114: unlimited
  | Current stacksize for task 115: unlimited
  | Current stacksize for task 116: unlimited
  | Current stacksize for task 117: unlimited
  | Current stacksize for task 118: unlimited
  | Current stacksize for task 119: unlimited
  | Current stacksize for task 120: unlimited
  | Current stacksize for task 121: unlimited
  | Current stacksize for task 122: unlimited
  | Current stacksize for task 123: unlimited
  | Current stacksize for task 124: unlimited
  | Current stacksize for task 125: unlimited
  | Current stacksize for task 126: unlimited
  | Current stacksize for task 127: unlimited
 
  Consistency checks for the contents of control.in are next.
 
  MPI_IN_PLACE appears to work with this MPI implementation.
  | Keeping use_mpi_in_place .true. (see manual).
  Target number of points in a grid batch is not set. Defaulting to  100
  Method for grid partitioning is not set. Defaulting to parallel hash+maxmin partitioning.
  Batch size limit is not set. Defaulting to    200
  By default, will store active basis functions for each batch.
  If in need of memory, prune_basis_once .false. can be used to disable this option.
  communication_type for Hartree potential was not specified.
  Defaulting to calc_hartree .
  Pulay mixer: Number of initial linear mixing iterations not set.
  Defaulting to    0 iterations.
  Work space size for distributed Hartree potential not set.
  Defaulting to   0.200000E+03 MB.
  Algorithm-dependent basis array size parameters:
  | n_max_pulay                         :        8
  Presetting      1001 iterations before the initial mixing cycle
  is restarted anyway using the sc_init_iter criterion / keyword.
  Presetting a factor      1.000 between actual scf density residual
  and density convergence criterion sc_accuracy_rho below which sc_init_iter
  takes no effect.
  Geometry relaxation not requested: no relaxation will be performed.
  Forces evaluation will include force correction term due to incomplete self-consistency (default).
  Handling of forces: Unphysical translation and rotation will be removed from forces.
  No accuracy limit for integral partition fn. given. Defaulting to  0.1000E-14.
  No threshold value for u(r) in integrations given. Defaulting to  0.1000E-05.
  No accuracy for occupation numbers given. Defaulting to  0.1000E-12.
  No threshold value for occupation numbers given. Defaulting to  0.0000E+00.
  No accuracy for fermi level given. Defaulting to  0.1000E-19.
  Maximum # of iterations to find E_F not set. Defaulting to  200.
  Maximum number of tasks per SMP nodenot specified.
  Presetting   512 tasks.
  Will not use alltoall communication since running on < 1024 CPUs.
  partition_type (choice of integration weights) for integrals was not specified.
  | Using a version of the partition function of Stratmann and coworkers ('stratmann_sparse').
  | At each grid point, the set of atoms used to build the partition table is smoothly restricted to
  | only those atoms whose free-atom density would be non-zero at that grid point.
  Partitioning for Hartree potential was not defined. Using partition_type for integrals.
  | Adjusted default value of keyword multip_moments_threshold to:       0.10000000E-11
  | This value may affect high angular momentum components of the Hartree potential in periodic systems.
  Angular momentum expansion for Kerker preconditioner not set explicitly.
  | Using default value of   0
  No explicit requirement for turning off preconditioner.
  | By default, it will be turned off when the charge convergence reaches
  | sc_accuracy_rho  =   0.100000E-03
  | sc_accuracy_eev  =   0.100000E-01
  | sc_accuracy_etot =   0.100000E-05
  No special mixing parameter while Kerker preconditioner is on.
  Using default: charge_mix_param =     0.2000.
  No q(lm)/r^(l+1) cutoff set for long-range Hartree potential.
  | Using default value of  0.100000E-09 .
  | Verify using the multipole_threshold keyword.
  Defaulting to new monopole extrapolation.
  Density update method: automatic selection selected.
  Using density matrix based charge density update.
  Using density matrix based charge density update.
  Using packed matrix style: index .
  Defaulting to use time-reversal symmetry for k-point grid.
  Charge integration errors on the 3D integration grid will be compensated
  by explicit normalization and distribution of residual charges.
  Use the "compensate_multipole_errors" flag to change this behaviour.
 
  Consistency checks for the contents of geometry.in are next.
 

  Range separation radius for Ewald summation (hartree_convergence_parameter):      3.02130828 bohr.
  Structure-dependent array size parameters: 
  | Maximum number of distinct radial functions  :       40
  | Maximum number of basis functions            :     2508
  | Number of Kohn-Sham states (occupied + empty):      440
------------------------------------------------------------

------------------------------------------------------------
          Preparing all fixed parts of the calculation.
------------------------------------------------------------
  Determining machine precision:
    2.225073858507201E-308
  Setting up grids for atomic and cluster calculations.

  Creating wave function, potential, and density for free atoms.
  Runtime choices for atomic solver:
  | atomic solver xc        : PBE
  | compute density gradient: 1
  | compute kinetic density : F

  Species: H

  List of occupied orbitals and eigenvalues:
    n    l              occ      energy [Ha]    energy [eV]
    1    0           1.0000        -0.238382        -6.4867


  Species: C

  List of occupied orbitals and eigenvalues:
    n    l              occ      energy [Ha]    energy [eV]
    1    0           2.0000       -10.041232      -273.2358
    2    0           2.0000        -0.504327       -13.7234
    2    1           2.0000        -0.193750        -5.2722


  Species: O

  List of occupied orbitals and eigenvalues:
    n    l              occ      energy [Ha]    energy [eV]
    1    0           2.0000       -18.898576      -514.2564
    2    0           2.0000        -0.878795       -23.9132
    2    1           4.0000        -0.332075        -9.0362


  Species: N

  List of occupied orbitals and eigenvalues:
    n    l              occ      energy [Ha]    energy [eV]
    1    0           2.0000       -14.129007      -384.4699
    2    0           2.0000        -0.681802       -18.5528
    2    1           3.0000        -0.260543        -7.0897


  Adding cutoff potential to free-atom effective potential.
  Creating fixed part of basis set: Ionic, confined, hydrogenic.
 
  H                    hydrogenic:
 
  List of hydrogenic basis orbitals: 
    n    l      effective z      eigenvalue [eV]  inner max. [A]     outer max. [A]     outer radius [A]   
    2    0         2.100000       -14.9965           0.193243           1.317208           5.373006
    2    1         3.500000       -41.6672           0.602369           0.602369           4.056063
    1    0         0.850000        -9.8292           0.624871           0.624871           5.373006
    2    1         3.700000       -46.5653           0.573622           0.573622           3.910002
    2    0         1.200000        -4.5995           0.334980           2.228188           5.505995
    3    2         7.000000       -74.0753           0.680699           0.680699           3.769201
 
 
  C                    hydrogenic:
 
  List of hydrogenic basis orbitals: 
    n    l      effective z      eigenvalue [eV]  inner max. [A]     outer max. [A]     outer radius [A]   
    2    1         1.700000        -9.8152           1.245706           1.245706           5.401630
    3    2         6.000000       -54.4226           0.792453           0.792453           4.178599
    2    0         4.900000       -81.6681           0.082559           0.562749           3.353238
    4    3         9.800000       -81.6681           0.863254           0.863254           4.028125
    3    1         5.200000       -40.8774           0.305389           1.215618           4.898362
    3    0         4.300000       -27.9508           0.091041           1.610311           5.401630
    5    4        14.400000      -112.8510           0.917666           0.917666           3.883070
    3    2         6.200000       -58.1113           0.763917           0.763917           4.077671
 
 
  O                    hydrogenic:
 
  List of hydrogenic basis orbitals: 
    n    l      effective z      eigenvalue [eV]  inner max. [A]     outer max. [A]     outer radius [A]   
    2    1         1.800000       -11.0118           1.178562           1.178562           5.432602
    3    2         7.600000       -87.3182           0.624125           0.624125           3.541477
    3    0         6.400000       -61.9209           0.061167           1.081902           4.306578
    4    3        11.600000      -114.4238           0.731631           0.731631           3.585037
    3    1         6.200000       -58.1113           0.255680           1.030270           4.306578
    3    2         5.600000       -47.4081           0.847233           0.847233           4.413171
    5    4        17.600000      -168.5799           0.749740           0.749740           3.372465
    1    0         0.750000        -7.6499           0.705284           0.705284           5.366593
 
 
  N                    hydrogenic:
 
  List of hydrogenic basis orbitals: 
    n    l      effective z      eigenvalue [eV]  inner max. [A]     outer max. [A]     outer radius [A]   
    2    1         1.800000       -11.0118           1.177451           1.177451           5.427479
    3    2         6.800000       -69.9029           0.704619           0.704619           3.854246
    3    0         5.800000       -50.8549           0.067388           1.191934           4.629968
    4    3        10.800000       -99.1854           0.786571           0.786571           3.761152
    3    1         5.800000       -50.8549           0.274880           1.094176           4.518138
    1    0         0.800000        -8.7059           0.662839           0.662839           5.361532
    5    4        16.000000      -139.3222           0.825990           0.825990           3.625711
    3    2         4.900000       -36.2967           0.968267           0.968267           4.862000
 
  Creating atomic-like basis functions for current effective potential.

  Species H                   :

  List of atomic basis orbitals and eigenvalues:
    n    l      energy [Ha]    energy [eV]    outer radius [A]
    1    0        -0.238382        -6.4867       5.373006


  Species C                   :

  List of atomic basis orbitals and eigenvalues:
    n    l      energy [Ha]    energy [eV]    outer radius [A]
    1    0       -10.041232      -273.2358       1.934409
    2    0        -0.504327       -13.7234       5.271162
    2    1        -0.193750        -5.2722       5.401630


  Species O                   :

  List of atomic basis orbitals and eigenvalues:
    n    l      energy [Ha]    energy [eV]    outer radius [A]
    1    0       -18.898576      -514.2564       1.415765
    2    0        -0.878795       -23.9132       5.048385
    2    1        -0.332075        -9.0362       5.301386


  Species N                   :

  List of atomic basis orbitals and eigenvalues:
    n    l      energy [Ha]    energy [eV]    outer radius [A]
    1    0       -14.129007      -384.4699       1.637919
    2    0        -0.681802       -18.5528       5.168461
    2    1        -0.260543        -7.0897       5.361532

  Assembling full basis from fixed parts.
  | Species H :   atomic orbital   1 s accepted.
  | Species H :    hydro orbital   2 s accepted.
  | Species H :    hydro orbital   1 s accepted.
  | Species H :    hydro orbital   2 s accepted.
  | Species H :    hydro orbital   2 p accepted.
  | Species H :    hydro orbital   2 p accepted.
  | Species H :    hydro orbital   3 d accepted.
  | Species C :   atomic orbital   1 s accepted.
  | Species C :    hydro orbital   2 s accepted.
  | Species C :   atomic orbital   2 s accepted.
  | Species C :    hydro orbital   3 s accepted.
  | Species C :    hydro orbital   3 p accepted.
  | Species C :   atomic orbital   2 p accepted.
  | Species C :    hydro orbital   2 p accepted.
  | Species C :    hydro orbital   3 d accepted.
  | Species C :    hydro orbital   3 d accepted.
  | Species C :    hydro orbital   4 f accepted.
  | Species C :    hydro orbital   5 g accepted.
  | Species O :   atomic orbital   1 s accepted.
  | Species O :    hydro orbital   3 s accepted.
  | Species O :   atomic orbital   2 s accepted.
  | Species O :    hydro orbital   1 s accepted.
  | Species O :    hydro orbital   3 p accepted.
  | Species O :   atomic orbital   2 p accepted.
  | Species O :    hydro orbital   2 p accepted.
  | Species O :    hydro orbital   3 d accepted.
  | Species O :    hydro orbital   3 d accepted.
  | Species O :    hydro orbital   4 f accepted.
  | Species O :    hydro orbital   5 g accepted.
[...]
  atom #   80
   Hellmann-Feynman              : -0.826855E-01  0.358268E-01  0.296095E-01
   Ionic forces                  :  0.000000E+00  0.000000E+00  0.000000E+00
   Multipole                     : -0.331340E-01  0.157498E-01  0.498851E-02
   Hartree pot. SCF incomplete   : -0.577490E-05  0.295425E-05  0.146648E-06
   Pulay + GGA                   :  0.561278E-01 -0.173712E-01 -0.231066E-01
   Van der Waals                 :  0.255474E-01 -0.889204E-02 -0.852901E-02
   ----------------------------------------------------------------
   Total forces(  80)            : -0.341500E-01  0.253164E-01  0.296247E-02
  atom #   81
   Hellmann-Feynman              : -0.336484E-01  0.706809E-01 -0.242894E-01
   Ionic forces                  :  0.000000E+00  0.000000E+00  0.000000E+00
   Multipole                     : -0.199337E-01 -0.672154E-01 -0.307244E-01
   Hartree pot. SCF incomplete   :  0.290625E-05  0.112923E-04  0.155517E-04
   Pulay + GGA                   :  0.415761E-01  0.232600E-01  0.839461E-01
   Van der Waals                 :  0.442426E-02 -0.197006E-02  0.768030E-02
   ----------------------------------------------------------------
   Total forces(  81)            : -0.757883E-02  0.247667E-01  0.366281E-01
  atom #   82
   Hellmann-Feynman              : -0.359810E-01  0.612527E-01  0.571658E-01
   Ionic forces                  :  0.000000E+00  0.000000E+00  0.000000E+00
   Multipole                     :  0.220171E-01  0.223689E-01  0.311003E-01
   Hartree pot. SCF incomplete   :  0.978286E-06  0.395125E-05  0.644352E-05
   Pulay + GGA                   :  0.247734E-01 -0.454193E-01 -0.346535E-01
   Van der Waals                 : -0.334676E-02 -0.147292E-01 -0.205233E-01
   ----------------------------------------------------------------
   Total forces(  82)            :  0.746370E-02  0.234770E-01  0.330958E-01
  atom #   83
   Hellmann-Feynman              :  0.705010E-01 -0.224607E+00 -0.238739E+00
   Ionic forces                  :  0.000000E+00  0.000000E+00  0.000000E+00
   Multipole                     : -0.874096E-02  0.434005E-01  0.557387E-01
   Hartree pot. SCF incomplete   :  0.925690E-05  0.201119E-05  0.360023E-05
   Pulay + GGA                   : -0.221741E-01  0.192761E+00  0.196140E+00
   Van der Waals                 :  0.362717E-02 -0.101605E-01  0.483583E-02
   ----------------------------------------------------------------
   Total forces(  83)            :  0.432224E-01  0.139592E-02  0.179794E-01
  atom #   84
   Hellmann-Feynman              :  0.787244E-01  0.175000E-01  0.357090E-01
   Ionic forces                  :  0.000000E+00  0.000000E+00  0.000000E+00
   Multipole                     :  0.299544E-01  0.313093E-02  0.957101E-02
   Hartree pot. SCF incomplete   :  0.593171E-05  0.103246E-05  0.212289E-05
   Pulay + GGA                   : -0.584604E-01 -0.324711E-02 -0.156248E-01
   Van der Waals                 : -0.222524E-01 -0.537349E-02 -0.101831E-01
   ----------------------------------------------------------------
   Total forces(  84)            :  0.279719E-01  0.120114E-01  0.194743E-01

  Timings for VdW correction (Tkatchenko-Scheffler 2009 or later):
  | CPU time:       10.097 s, Wall clock time:       10.424 s.
  Removing unitary transformations (pure translations, rotations) from forces on atoms.
  Atomic forces before filtering:
  | Net force on center of mass :  -0.298323E-04  0.312957E-04 -0.107089E-02 eV/A
  Atomic forces after filtering:
  | Net force on center of mass :  -0.836279E-16  0.168650E-15 -0.111504E-16 eV/A

  Energy and forces in a compact form:
  | Total energy uncorrected      :         -0.705671186376546E+05 eV
  | Total energy corrected        :         -0.705671186376546E+05 eV  <-- do not rely on this value for anything but (periodic) metals
  | Electronic free energy        :         -0.705671186376546E+05 eV
  Total atomic forces (unitary forces cleaned) [eV/Ang]:
  |    1          0.116268236685950E+00         -0.176067167883963E-02          0.111701624269725E+00
  |    2         -0.224292639419172E-01         -0.158785126806314E-01         -0.287084992718919E-01
  |    3          0.366464532523937E-01          0.128155967369539E-01          0.298172265781359E-01
  |    4         -0.147507418462416E+00         -0.565689750400043E-01         -0.115922218062064E+00
  |    5         -0.529780886839106E-02         -0.934703197847771E-02          0.577268473981160E-02
  |    6         -0.398569828430506E-01          0.310987945109340E-01          0.471521868233395E-02
  |    7          0.163042065002383E+00         -0.759797072691844E-01         -0.107173235729858E+00
  |    8          0.699197010183931E-01         -0.887114842068032E-01          0.608198960656173E-01
  |    9         -0.171384117533718E+00          0.113792467080409E+00          0.105618368447250E+00
  |   10          0.256636995816532E-01         -0.227358167209892E-01         -0.455355421661751E-02
  |   11         -0.421220098573717E-02          0.866561639722060E-02          0.350347120391250E-01
  |   12         -0.105716990616857E-01         -0.190400914552325E-01         -0.148043369818623E-01
  |   13          0.269372771564173E-01          0.603831407572231E-02         -0.758721376462328E-02
  |   14          0.390549646114836E-01          0.197955946066254E-01          0.230824800295817E-01
  |   15          0.346943184513007E-01          0.147543059147371E-01          0.135141549285415E-01
  |   16          0.126161682568942E-01          0.429035187706723E-01         -0.995564300600485E-02
  |   17          0.194385402962383E-01          0.334996210558945E-01         -0.143317291744971E-01
  |   18         -0.265916658395575E-01          0.233055896114647E-01         -0.329586837330281E-01
  |   19         -0.227752045461893E-01          0.242664774612954E-01         -0.225886004085446E-01
  |   20         -0.385418900253165E-01         -0.242001783745346E-01         -0.188582844772578E-01
  |   21         -0.355633143567466E-01         -0.128386835516930E-01         -0.177430569454283E-01
  |   22         -0.114943780024162E+00         -0.494052921374322E-03          0.109623237658832E+00
  |   23          0.226190092287103E-01          0.186551047187544E-01         -0.274841593688687E-01
  |   24         -0.393766286533779E-01         -0.150569879408918E-01          0.303357497854380E-01
  |   25          0.148242157957024E+00          0.592142550436853E-01         -0.114639457017472E+00
  |   26          0.545881889140460E-02          0.964047387093253E-02          0.503613781401966E-02
  |   27          0.393122138110931E-01         -0.319216203490160E-01          0.467627020680126E-02
  |   28         -0.162140297390946E+00          0.770892041191169E-01         -0.107887789101995E+00
  |   29         -0.708859665462959E-01          0.893628651978807E-01          0.595270499002082E-01
  |   30          0.171839435574151E+00         -0.115299627763538E+00          0.107176567640293E+00
  |   31         -0.249762110109263E-01          0.224218554477050E-01         -0.482419876090985E-02
  |   32          0.447508223146219E-02         -0.882456789951273E-02          0.352012536228134E-01
  |   33          0.102182428471945E-01          0.202896663994183E-01         -0.152088918185220E-01
  |   34         -0.272048137298702E-01         -0.627682107735150E-02         -0.744733603897862E-02
  |   35         -0.350381014509069E-01         -0.166304444535888E-01          0.242691521024602E-01
  |   36         -0.394800897761333E-01         -0.171559387524570E-01          0.138896918201276E-01
  |   37         -0.158559620696241E-01         -0.421912289446648E-01         -0.780476652351077E-02
  |   38         -0.184908411855631E-01         -0.338795151557579E-01         -0.157442073667113E-01
  |   39          0.311178637337145E-01         -0.241817923763738E-01         -0.350176649099851E-01
  |   40          0.202470232996228E-01         -0.232655915237598E-01         -0.210555766293762E-01
  |   41          0.399926605017057E-01          0.255880455834007E-01         -0.196968974041553E-01
  |   42          0.351353630711981E-01          0.114139382123003E-01         -0.183557780923479E-01
  |   43          0.970598483119188E-01          0.868863548645952E-01         -0.722074581188999E-01
  |   44         -0.403716751642516E-01          0.551421287850200E-02          0.108906539863029E-01
  |   45          0.492128764878508E-01          0.311590002389861E-01         -0.316996174291008E-01
  |   46         -0.157538937125607E+00         -0.756086056273442E-01          0.849018385282149E-01
  |   47         -0.296960251981295E-02          0.144976515256426E-02         -0.287744519529329E-02
  |   48         -0.124656801057147E-01         -0.446442359463297E-01          0.901115329069526E-02
  |   49          0.921986896407791E-01          0.169304644499683E+00          0.737813637201436E-01
  |   50          0.372766288996868E-02          0.115882086999380E+00         -0.834957657733376E-01
  |   51         -0.812108895530834E-01         -0.224047805084212E+00         -0.674042279291564E-01
  |   52         -0.608733880836411E-02          0.414992078948760E-01         -0.101335374918383E-01
  |   53          0.290184603605310E-02         -0.286036760452178E-01         -0.213268657924015E-01
  |   54         -0.116123264303712E-01          0.363792264168789E-02          0.163203710491155E-01
  |   55          0.225343171998331E-01          0.135551762606436E-01          0.940752145817400E-02
  |   56          0.420954134669622E-01          0.182633836153820E-02         -0.229662696269478E-01
  |   57          0.315811983975986E-01          0.114159287918520E-01         -0.186849961618321E-01
  |   58          0.314180263324744E-01         -0.152466544904286E-01          0.199574863222185E-01
  |   59          0.342810320726678E-01         -0.265406194085037E-01          0.315798879522474E-02
  |   60          0.118335937663049E-01         -0.316782013308537E-01          0.419828325157755E-01
  |   61         -0.740057800456261E-02         -0.200958377575215E-01          0.299420190394863E-01
  |   62         -0.467969534744697E-01         -0.267433911325275E-02          0.173974464384356E-01
  |   63         -0.282178752049598E-01         -0.110735368338761E-01          0.198226313622023E-01
  |   64         -0.969154824976280E-01         -0.881775908359736E-01         -0.751768266806623E-01
  |   65          0.388058501616322E-01         -0.425972810018336E-02          0.128526761089054E-01
  |   66         -0.464573342784512E-01         -0.290340336576883E-01         -0.300699377164162E-01
  |   67          0.156143265131983E+00          0.724744092953167E-01          0.843431889080436E-01
  |   68          0.521705974837567E-02         -0.770071815116369E-03         -0.591124055940476E-03
  |   69          0.113525831848577E-01          0.450701381407732E-01          0.894090030435315E-02
  |   70         -0.925896129807190E-01         -0.169557524604823E+00          0.714244969192382E-01
  |   71         -0.362975129855726E-02         -0.116423524560861E+00         -0.826213171993055E-01
  |   72          0.812527062040268E-01          0.224744890410201E+00         -0.669133720886814E-01
  |   73          0.668170089864287E-02         -0.419798468666136E-01         -0.101830737135418E-01
  |   74         -0.284159406479734E-02          0.287947850720436E-01         -0.216342866549361E-01
  |   75          0.114255320107409E-01         -0.336928605425321E-02          0.161790437554857E-01
  |   76         -0.230850629624388E-01         -0.134957758818903E-01          0.930180854315647E-02
  |   77         -0.431107746393121E-01         -0.238993342679321E-02         -0.243648558806263E-01
  |   78         -0.308523895950921E-01         -0.118965151741383E-01         -0.187703533805520E-01
  |   79         -0.323153231650953E-01          0.190149842410800E-01          0.218424063190649E-01
  |   80         -0.341496490458524E-01          0.253160126748210E-01          0.297521751712042E-02
  |   81         -0.757847650405598E-02          0.247663743674756E-01          0.366408836953299E-01
  |   82          0.746405967998640E-02          0.234765990778234E-01          0.331085484472599E-01
  |   83          0.432227947646055E-01          0.139555178785298E-02          0.179921094988042E-01
  |   84          0.279722138780775E-01          0.120109962637300E-01          0.194870468401140E-01

  ------------------------------------ 
  Start decomposition of the XC Energy 
  ------------------------------------ 
  X and C from original XC functional choice 
  Hartree-Fock Energy :          0.000000000 Ha              0.000000000 eV
  X Energy            :       -329.152721441 Ha          -8956.701262360 eV
  C Energy            :        -12.720404212 Ha           -346.139810014 eV
  XC Energy w/o HF    :       -341.873125653 Ha          -9302.841072374 eV
  Total XC Energy     :       -341.873125653 Ha          -9302.841072374 eV
  ------------------------------------ 
  LDA X and C from self-consistent density 
  X Energy LDA        :       -298.834247513 Ha          -8131.693610852 eV
  C Energy LDA        :        -24.872054344 Ha           -676.803034048 eV
  ------------------------------------ 
  End decomposition of the XC Energy 
  ------------------------------------ 

------------------------------------------------------------

------------------------------------------------------------------------------
  Final output of selected total energy values:

  The following output summarizes some interesting total energy values
  at the end of a run (AFTER all relaxation, molecular dynamics, etc.).

  | Total energy of the DFT / Hartree-Fock s.c.f. calculation      :         -70567.118637655 eV
  | Final zero-broadening corrected energy (caution - metals only) :         -70567.118637655 eV
  | For reference only, the value of 1 Hartree used in FHI-aims is :             27.211384500 eV
  | For reference only, the overall average (free atom contribution
  | + realspace contribution) of the electrostatic potential after
  | s.c.f. convergence is                                          :             -7.500572328 eV

  Before relying on these values, please be sure to understand exactly which
  total energy value is referred to by a given number. Different objects may
  all carry the same name 'total energy'. Definitions:

  Total energy of the DFT / Hartree-Fock s.c.f. calculation:
  | Note that this energy does not include ANY quantities calculated after the
  | s.c.f. cycle, in particular not ANY RPA, MP2, etc. many-body perturbation terms.

  Final zero-broadening corrected energy:
  | For metallic systems only, a broadening of the occupation numbers at the Fermi
  | level can be extrapolated back to zero broadening by an electron-gas inspired
  | formula. For all systems that are not real metals, this value can be
  | meaningless and should be avoided.

------------------------------------------------------------------------------
  Methods described in the following list of references were used in this FHI-aims run.
  If you publish the results, please make sure to cite these reference if they apply.
  FHI-aims is an academic code, and for our developers (often, Ph.D. students
  and postdocs), scientific credit in the community is essential.
  Thank you for helping us!

  For any use of FHI-aims, please cite:

    Volker Blum, Ralf Gehrke, Felix Hanke, Paula Havu, Ville Havu,
    Xinguo Ren, Karsten Reuter, and Matthias Scheffler
    'Ab initio molecular simulations with numeric atom-centered orbitals'
    Computer Physics Communications 180, 2175-2196 (2009)
    http://doi.org/10.1016/j.cpc.2009.06.022


  The provided symmetry information was generated with SPGlib:

    Atsushi Togo, Yusuke Seto, Dimitar Pashov
    SPGlib 1.7.3 obtained from http://spglib.sourceforge.net
    Copyright (C) 2008 Atsushi Togo


  The ELSI infrastructure was used in your run to solve the Kohn-Sham electronic structure.
  Please check out http://elsi-interchange.org to learn more.
  If scalability is important for your project, please acknowledge ELSI by citing:

    V. W-z. Yu, F. Corsetti, A. Garcia, W. P. Huhn, M. Jacquelin, W. Jia,
    B. Lange, L. Lin, J. Lu, W. Mi, A. Seifitokaldani, A. Vazquez-Mayagoitia,
    C. Yang, H. Yang, and V. Blum
    'ELSI: A unified software interface for Kohn-Sham electronic structure solvers'
    Computer Physics Communications 222, 267-285 (2018).
    http://doi.org/10.1016/j.cpc.2017.09.007


  For the real-space grid partitioning and parallelization used in this calculation, please cite:

    Ville Havu, Volker Blum, Paula Havu, and Matthias Scheffler,
    'Efficient O(N) integration for all-electron electronic structure calculation'
    'using numerically tabulated basis functions'
    Journal of Computational Physics 228, 8367-8379 (2009).
    http://doi.org/10.1016/j.jcp.2009.08.008

  Of course, there are many other important community references, e.g., those cited in the
  above references. Our list is limited to references that describe implementations in the
  FHI-aims code. The reason is purely practical (length of this list) - please credit others as well.

------------------------------------------------------------
          Leaving FHI-aims.
          Date     :  20230919, Time     :  032851.649

          Computational steps:
          | Number of self-consistency cycles          :           18
          | Number of SCF (re)initializations          :            1

          Detailed time accounting                     :  max(cpu_time)    wall_clock(cpu1)
          | Total time                                  :      702.685 s         711.226 s
          | Preparation time                            :        0.342 s           0.755 s
          | Boundary condition initalization            :        2.188 s           2.252 s
          | Grid partitioning                           :        0.609 s           0.698 s
          | Preloading free-atom quantities on grid     :        2.251 s           2.305 s
          | Free-atom superposition energy              :        0.185 s           0.187 s
          | Total time for integrations                 :      136.224 s         137.163 s
          | Total time for solution of K.-S. equations  :       48.436 s          48.832 s
          | Total time for density & force components   :      436.719 s         439.594 s
          | Total time for mixing & preconditioning     :       21.483 s          21.782 s
          | Total time for Hartree multipole update     :        1.045 s           1.061 s
          | Total time for Hartree multipole sum        :       32.084 s          32.338 s
          | Total time for total energy evaluation      :        0.085 s           0.077 s
          | Total time NSC force correction             :        5.534 s           5.599 s
          | Total time for vdW correction               :       10.097 s          10.424 s

          Partial memory accounting:
          | Residual value for overall tracked memory usage across tasks:     0.000000 MB (should be 0.000000 MB)
          | Peak values for overall tracked memory usage:
          |   Minimum:      307.581 MB (on task   5 after allocating temp_ham_ovlp)
          |   Maximum:      311.853 MB (on task  10 after allocating temp_ham_ovlp)
          |   Average:      310.738 MB
          | Largest tracked array allocation:
          |   Minimum:       84.590 MB (overlap_matrix on task   0)
          |   Maximum:       84.590 MB (overlap_matrix on task   0)
          |   Average:       84.590 MB
          Note:  These values currently only include a subset of arrays which are explicitly tracked.
          The "true" memory usage will be greater.

          Have a nice day.
------------------------------------------------------------
